44
 energy: -68.612399728957 gnorm: 0.000648148624 xtb: 6.7.1 (edcfbbe)
Fe          -1.43797171776123       -2.16935663733574       -0.39683162725924
C           -1.28163927806881        1.51473341430069       -0.85883760890517
H           -2.14178112129352        1.90813642069758       -0.29977689434004
C           -0.22257782294644       -0.69721045763451       -1.25441031979551
H            0.20091730389513       -1.01289623792972       -2.21008106263858
C            0.77200117317141        0.22935197144598       -0.54272983884973
H            1.46328065499179        0.60150847752179       -1.30452904057341
C           -0.06864479713609        1.36009457279084        0.04335322439271
C            0.75596514662867        2.56890270497082        0.52610255778143
H            0.51099821309585        3.51697392363596        0.04558513082685
C           -0.36389774160658        1.01153571018452        1.52138512577576
H           -1.40371040142247        0.82139690181482        1.79519355882725
C            0.54410665923320       -0.17322745903276        1.83032885073538
H            1.01353460514984       -0.09844274224595        2.81104775156150
H           -0.04790629107952       -1.09783924074257        1.80625330268795
C            1.57339776514898       -0.18629848650354        0.69325224294793
H            2.04318272164920       -1.16646037067563        0.59355893403710
C            0.19389225700354        2.37748051731872        1.94304802341386
H           -0.58753758187461        3.09354701066500        2.18976838254499
H            0.92825776961138        2.36393640522238        2.74573348861286
C            2.65526759671858        0.88965238098914        0.91836500095705
H            2.89574118384067        0.92487472579863        1.98197268456581
H            3.56823165809580        0.59511555683064        0.39661798928356
C            2.25341751034639        2.29343277540567        0.42538751323295
H            2.55659799531184        2.41771034173341       -0.61640899425455
H            2.79270376300455        3.04574489168400        1.00497125991028
C           -1.50721246601628        0.09593990665390       -1.42904749141722
H           -2.36416841015546       -0.41820123970755       -0.84958194431758
C           -1.92101046730993        0.35456513251972       -2.88172330361334
H           -1.63387109590923       -0.47529488543407       -3.53222717152229
C           -3.41399393158524        0.62611865268311       -3.03038593661012
H           -3.99122014461184       -0.23733637346277       -2.70262734063874
H           -3.65798151137436        0.82552753733590       -4.07127191739812
H           -3.70495831546204        1.49128490551276       -2.43839144192135
C           -1.08143833909406        1.60650714806452       -3.16657331750258
H           -0.05305590585402        1.32597887083091       -3.43540081891557
H           -1.49471203766259        2.23380951973582       -3.95817196812146
C           -1.50601552425415       -3.26651538044219       -1.84193645314887
C           -2.68034012846061       -3.04514111684827        0.52315280233298
C           -0.06878598410417       -3.00109588604269        0.40267117260255
O           -1.08268677641627        2.36801039916653       -1.97444109198366
O           -1.46664959719573       -4.13373528316671       -2.59383406071053
O           -3.42135950922481       -3.69696801987408        1.11131162951292
O            0.75563292100459       -3.69685095842555        0.79615901788712