46
 energy: -58.820989242074 gnorm: 0.000809036305 xtb: 6.7.1 (edcfbbe)
Ti          -1.01284102567197       -0.25976493749042       -0.49384305588474
Br          -2.91085869846294       -0.59940876244778       -1.98034972688208
Br          -2.45756469436786        0.74804296738723        1.18426094929188
N           -0.13686174248891        1.25576516871626       -0.99055268647944
C           -0.77589103642552       -2.06097521199772        1.04216557496694
C            0.45560500744854       -1.35576157517350        0.89380258752118
C            0.89016285865897       -1.50348796730492       -0.45474558512932
C           -0.09711856852518       -2.27178547732347       -1.14261862249788
C           -1.10857185668394       -2.62902713281822       -0.20369799845616
C           -1.49515059590882       -2.30775464930854        2.33375978969241
H           -1.30100862338643       -1.51580551966308        3.05582350922948
H           -1.16018170920857       -3.25369006606358        2.76691878885159
H           -2.57244435694498       -2.37058648152386        2.18007908149403
C            1.26126436671004       -0.78963374661107        2.02748671167205
H            2.06310587484640       -0.14786157350670        1.66439087063967
H            1.71526373747911       -1.60466978344692        2.59715832578111
H            0.63698883736152       -0.21811487270772        2.71835715097716
C            2.25468398553681       -1.12327778892064       -0.95922738446037
H            2.35700527061402       -1.34017303347094       -2.02101852824003
H            3.01483668767987       -1.70114899087438       -0.42780589151058
H            2.46915867944161       -0.06480453780460       -0.80098559126889
C           -0.01408541574285       -2.80149251599591       -2.54521389628797
H           -0.97726999522366       -2.72755572097738       -3.05436082487025
H            0.27172013823062       -3.85605354491842       -2.52630718644249
H            0.72473997424708       -2.26272205375636       -3.13670539005035
C           -2.26444798567499       -3.55320761241891       -0.44721936988715
H           -3.17829319027298       -3.17401791335614        0.01374203943534
H           -2.05191024942611       -4.53287023289024       -0.01245372843427
H           -2.45016367678355       -3.68441050091482       -1.51144575955684
C            0.37776571155176        2.04488514020886        0.10812256111683
H            0.25584475034346        1.50869752836663        1.05301060196035
H           -0.16157618299043        3.00003372301104        0.20024976352415
H            1.44675967606278        2.26829872013939       -0.01169179796106
C           -0.08103259818592        1.91012244711250       -2.29774586985780
C           -1.38085561339471        2.71273418183956       -2.51433605931068
H           -1.35798501982673        3.21445645845123       -3.47840038343299
H           -1.49006469313450        3.46532963968926       -1.73392357120060
H           -2.25160234395132        2.05881074584849       -2.48294844047491
C            1.11283674642192        2.87153815504716       -2.45019819323081
H            1.14558855783523        3.22940266223602       -3.47612257916439
H            2.05266780657687        2.36287895338310       -2.24051251427654
H            1.02099285399919        3.73636817323535       -1.79854123054082
C            0.07158205363222        0.83767204886346       -3.39155664952253
H            0.07904010232708        1.31279022287476       -4.36986651701566
H           -0.74723049612710        0.12096855423996       -3.37500169979414
H            1.01639669180633        0.31026671303678       -3.25993157404156
