45
 energy: -76.324044120419 gnorm: 0.000623449774 xtb: 6.5.1 (fef0646)
O            3.48119169453532        1.68764429178556       -0.35770050526858
C            0.77596414492707        1.05280579473835        1.15123654686977
C           -1.21938623917041        1.18361945783110       -0.44351613133657
H           -4.25274612260790       -1.14146830964308       -0.06718036723340
H            4.98223321746802        0.14792947120405       -1.75120234277383
H            4.04137397747412       -1.47370867484445       -3.26717486672746
H           -2.87596991645154        0.02469711721007        3.65244368194067
C           -1.45614565467221        3.00016088163659        3.35844397747985
N           -1.35358745644160        0.44919582751562        2.33928169112974
C           -1.99982550229629        0.67312194532340        3.63754325980469
H            2.29987562233387        1.65204231321782       -1.98173702731726
N           -2.18558669760880        0.24408148883280        0.12429647098618
H            0.88726665225827       -0.01109107684862        0.97531745019008
C            1.26787433650521       -1.51475991948489       -1.97146146014065
H            0.35873525255743       -0.04028412979984       -3.29104283463247
H           -0.59958037895220       -2.98379408276348        0.51522339155466
C           -2.32947337025387        2.11516164354993        3.81340567437255
H           -0.79768123764023       -2.04379918835555       -1.72421442924644
C            0.25655697956857       -2.58992244699893       -0.00158842473183
O            2.33105570135950       -0.43280165062397       -3.74853742399361
C            3.31847322588840       -0.78828486684206       -2.79323347898069
O           -0.30341421034968        2.60148044372144        2.73784127005933
C            2.56930300685093       -1.46116058382036       -1.68376603851624
F           -3.32990294441368       -2.65957541977657       -1.05740000980202
C            0.16017876425827       -2.06803432509332       -1.22052974982512
H           -1.52981912094783        4.07148608229691        3.45671824893516
H           -4.65448417595344       -2.93455114113631        0.45980811051898
H           -1.28407487301319        0.32662787806556        4.39128814637242
H           -1.76066556479646       -0.68364460151316        0.29809941249532
O           -0.95480654222868       -0.72586801929465        2.12559240536665
C            4.10320794742030        0.45645409498296       -2.31792882642542
N           -0.31133165570537        1.76882935748121        0.51132031420517
H            0.66957813702129       -1.61868041890572       -4.04873677814221
H           -0.65692460595087        0.67854299028302       -1.22966341952894
H            4.41190830829778        1.01051688264715       -3.20636783822502
H            1.68871841643243        1.62468095045250        1.23516846646171
C           -4.26170733567928       -2.20188357583001       -0.21654899293643
H           -1.79691893216907        2.01352486600284       -0.86890915547180
C            1.05696737025968       -0.88795271203476       -3.32519219481006
H            1.19144898699233       -2.63112275764953        0.53045541437802
C           -0.40537492059707        1.49491117389085        1.91921334948145
O           -2.59163925790093        0.69921534493145        1.32811040776291
H            3.07117841509947       -1.82069342885479       -0.80678375970849
C            3.23324335553595        1.33972998519521       -1.47852058040273
H           -3.24528680322332        2.39662242128977        4.29812951481994
