35
 energy: -60.459396688090 gnorm: 0.000878263463 xtb: 6.5.1 (fef0646)
C            0.22048272879481       -0.13347879466632        4.42691123444993
H            2.55829193759743       -0.79334490227255        1.10278174919168
C            1.59789619334587       -0.30138474112131        0.88836155067160
H            1.75488592286033       -2.10990581208642        2.48727668131163
C            0.03618437625265        0.10070781527141       -4.49009824512453
C            0.29603493201324       -1.01438029608434       -1.06459748643356
N           -0.79699450526776       -0.25071160711346       -5.47976293039619
H           -0.20630390544507        1.66861005970113        6.55309194578266
O            0.90772449945906        0.94460276187951       -4.70791900261258
C           -0.93241844536372        1.64926213296112        5.74136625654809
H           -1.32984106703795        2.65176146436473        5.60754470756947
C            0.83392996972478       -0.61547321354257        3.27776866617429
H            0.20874311648030        0.98333751584090       -6.47465311831455
H           -1.60629290960528       -1.99412978174840       -6.24976530431931
H           -2.76496679505612       -0.69512032659218       -5.90422480939782
H           -2.02530064181662       -1.60677879111582       -4.55234091087513
O            1.28838371143028       -1.89869437038121        3.30464697085207
H            0.51687069533837        2.13200779865051        1.34905794222138
H            0.14794265488589       -0.79285323633337        5.27761163408040
O           -0.79653798082401       -1.67920040102630       -1.48205832147376
N            0.73322162464958       -1.25027750611957        0.19418890074394
C            0.95465688743051        0.20683002892347        2.15279596966323
H            0.07508688982243       -1.75539802623457        0.77230708300829
C           -0.17469482437497        1.96571931917268        3.36141312755593
C           -1.86505449371950       -1.19897976030820       -5.54685535261638
H           -1.74366447496763        0.98681241385185        6.03831068791004
O           -0.55553741503372        0.40213449691699       -6.69465838455951
C           -0.10556178987032       -0.52184095718881       -3.16170598977423
H            1.80104863488164        0.53488531295429        0.21904045119570
N           -1.03767155555785       -1.37126067448882       -2.79133255701587
C            0.78637200303077       -0.25171591795316       -2.09890225830130
C           -0.28672646756104        1.15525657316602        4.48407462863315
H            1.63934374935791        0.38867553460813       -2.13754491630075
C            0.43559076500690        1.49255995045716        2.21587470908418
H           -0.56512430985918        2.97176517965516        3.38199457886613
