28
 energy: -49.834060984742 gnorm: 0.000268680582 xtb: 6.5.1 (fef0646)
H           -3.55545152900644        0.65850458585561        3.15118650889411
H           -0.58141996775972       -4.05937829281172        2.06972324223260
H           -3.72152564207303        1.36877968620694        1.53054675011084
H            3.86302077249778       -0.30069204732692       -2.35029291670872
C            0.92097148772913        0.14611285375675       -0.73749781396272
C           -3.56622613198449        0.44691514564507        2.08343773466530
F            1.57758762191869        4.16472164219795       -2.60064456855772
F            0.63467673139113        3.02924600338199       -4.18420349950207
C            1.27437071974901        1.84729036551884       -2.23772262198107
C           -0.75821730179711       -1.93384063341940        1.94923244746777
C           -0.53528556670514       -3.19091925368398        2.72686580023966
C            0.15235711028156       -1.49926672754193        1.00572514676693
C            0.73592115377174        3.12356170619642       -2.83251250725631
C           -2.28299347422349       -0.19285119656427        1.68390723544669
H           -1.30459922767224       -3.28559119965669        3.48708765966277
H            1.03889200798387       -2.09794818581609        0.85334093538471
C            2.92221342306091        0.14114625309040       -2.05685199692839
C            2.49324400567588        1.32649437367062       -2.65125516485262
S           -1.40327291515487        0.69213169559995        0.41272763608125
C            2.14099896458898       -0.45925492185521       -1.09689444119299
N            0.51403012136321        1.28747377990921       -1.31989324043375
C            0.01268195134295       -0.35281952572724        0.24218746391450
H           -0.25265762796757        3.37890757554440       -2.42597326984454
N           -1.90422749279680       -1.27130145970529        2.23625824262163
H            0.44408732921956       -3.18258555422093        3.20269001352686
H            2.45653572650246       -1.37691516992577       -0.62706644976321
H            3.07686918654828        1.82761195687699       -3.40568525258889
H           -4.39258105448428       -0.23553369519609        1.89157780455735
